LAMMPS data file via write_data, version 22 Jul 2025, timestep = 10000, units = metal

24 atoms
2 atom types

0.0011005304476787504 5.684037990292176 xlo xhi
0.0016092716793325653 9.977064018893966 ylo yhi
0.001223564375204827 7.00712553523814 zlo zhi
0 0 -0.13080941176064448 xy xz yz

Masses

1 26.982
2 47.88

Atoms # atomic

1 2 2.842569260370769 9.84625460713332 7.007125535238137 0 -1 -1
3 1 1.4218348954096445 2.364663546722346 7.007125535238137 0 0 -1
4 2 0.0011005304485216766 9.84625460713332 7.007125535238139 0 -1 -1
5 2 0.0011005304485191528 1.620581925628225 2.3365242213295137 0 0 0
6 1 4.263303625331896 2.364663546722346 7.007125535238137 0 0 -1
11 1 1.4218348954096451 4.114445612431881 2.3365242213295128 0 0 0
12 1 4.263303625331896 4.114445612431881 2.336524221329513 0 0 0
13 2 2.84256926037077 1.620581925628224 2.3365242213295128 0 0 0
14 2 2.84256926037077 3.239554579577113 4.671824878283827 0 0 0
15 1 1.4218348954096451 0.7456908927734541 4.671824878283827 0 0 0
16 1 4.263303625331896 0.7456908927734537 4.671824878283827 0 0 0
21 2 0.0011005304485216766 3.2395545795771126 4.671824878283827 0 0 0
2 2 0.0011005304485191528 4.858527233526004 7.007125535238137 0 0 -1
9 2 2.84256926037077 4.858527233526004 7.007125535238137 0 0 -1
7 1 1.4218348954096451 7.352390920329661 7.007125535238137 0 0 -1
8 1 4.263303625331896 7.352390920329661 7.007125535238137 0 0 -1
10 2 2.842569260370769 6.608309299235542 2.3365242213295128 0 0 0
17 1 1.4218348954096451 9.102172986039202 2.336524221329516 0 0 0
18 2 0.0011005304485216766 6.608309299235542 2.3365242213295128 0 0 0
19 2 0.0011005304485216766 8.227281953184427 4.671824878283827 0 0 0
20 1 1.4218348954096451 5.733418266380767 4.671824878283822 0 0 0
22 1 4.263303625331896 9.102172986039202 2.336524221329516 0 0 0
23 1 4.263303625331896 5.733418266380767 4.671824878283822 0 0 0
24 2 2.84256926037077 8.227281953184427 4.671824878283827 0 0 0

Velocities

1 0 0 0
3 0 0 0
4 0 0 0
5 0 0 0
6 0 0 0
11 0 0 0
12 0 0 0
13 0 0 0
14 0 0 0
15 0 0 0
16 0 0 0
21 0 0 0
2 0 0 0
9 0 0 0
7 0 0 0
8 0 0 0
10 0 0 0
17 0 0 0
18 0 0 0
19 0 0 0
20 0 0 0
22 0 0 0
23 0 0 0
24 0 0 0
