LAMMPS data file via write_data, version 22 Jul 2025, timestep = 10000, units = metal

16 atoms
2 atom types

-0.04723708684903778 10.006529230370013 xlo xhi
-0.027272344808001607 5.77727234480801 ylo yhi
-0.010028226052939106 4.644528226052951 zlo zhi

Masses

1 26.982
2 47.88

Atoms # atomic

1 1 3.304018352223772 -0.027272344807458104 1.153610886973531 0 0 0
5 2 4.121398509011459 1.3884716158474322 3.4808891130264756 0 0 0
6 2 1.669258038648398 -0.027272344807458104 3.480889113026476 0 0 0
7 1 1.6283906326872644 2.875000000000548 3.480889113026476 0 0 0
8 2 0.8110104758995771 4.29074396065544 1.153610886973531 0 0 0
9 2 0.8110104758995773 1.4592560393456597 1.1536108869735313 0 0 0
10 2 3.263150946262639 2.875000000000548 1.153610886973531 0 0 0
16 2 4.121398509011461 4.361528384153664 3.480889113026476 0 0 0
2 1 6.65527379129679 -0.027272344807458104 3.4808891130264756 0 0 0
3 2 5.837893634509101 1.3884716158474322 1.1536108869735309 0 0 0
4 2 8.290034104872165 -0.027272344807456328 1.1536108869735309 0 0 0
11 1 8.330901510833296 2.8750000000005485 1.1536108869735306 0 0 0
12 2 9.148281667620987 1.4592560393456597 3.4808891130264756 0 0 0
13 2 9.148281667620987 4.29074396065544 3.4808891130264756 0 0 0
14 2 6.696141197257922 2.875000000000548 3.4808891130264756 0 0 0
15 2 5.837893634509102 4.361528384153665 1.153610886973531 0 0 0

Velocities

1 0 0 0
5 0 0 0
6 0 0 0
7 0 0 0
8 0 0 0
9 0 0 0
10 0 0 0
16 0 0 0
2 0 0 0
3 0 0 0
4 0 0 0
11 0 0 0
12 0 0 0
13 0 0 0
14 0 0 0
15 0 0 0
